% Model:              pine_2mm_12mc.mph
% Version:            COMSOL 4.3.2.164
% Date:               Jul 10 2015, 15:32
% Table:              Table 1 - Volume Average 1 (T)
% Time                   Vol_ave (K)              Center (K), Point: 9     Surface_middle_minor_axis (K), Point: 11Surface_middle_major_axis (K), Point: 10Surface_top (K), Point: 5
0                        293.1771777020449        293.1510751773667        293.72165628694455       293.3838916735606        293.6304500842027
0.1                      445.5950416254827        412.15279755139517       450.2060029985047        488.8160607701683        489.02520452437807
0.2                      531.3761158074398        501.7923600289604        530.5480767458007        564.2909000939466        571.7958916404539
0.30000000000000004      588.000619449817         563.1240028477166        585.4544587175346        612.341673023069         623.3437062400515
0.4                      627.7968800625083        606.9097030396383        624.6258326161753        645.998818464349         658.0474064134651
0.5                      657.1697405711823        639.5025476782333        653.7671523000984        671.0136595964304        682.8711973763362
0.6000000000000001       680.335891347095         665.3616151272371        676.8793816683803        690.8600988161163        702.0999732647757
0.7000000000000001       698.4968713134479        685.7811694582585        695.124522867983         706.5152324305893        716.8771921638163
0.8                      712.5980831733332        701.7738926779202        709.4108149880095        718.7564426190971        728.1000154469587
0.9                      723.7817391542746        714.5609872691603        720.8322312932222        728.5280973595399        736.8458941437051
1                        732.845706886753         724.9980447527794        730.1539242399165        736.4951238442812        743.8379883998999
1.1                      740.3556917204221        733.6989885083976        737.9244709329394        743.1311383554289        749.5653891757953
1.2000000000000002       746.6649660916188        741.045948815431         744.4854526232554        748.7313407092396        754.3384083347196
1.3                      751.6621747391358        746.9187944790194        749.7294888973655        753.202878865873         758.0582455651428
1.4000000000000001       755.9843365392052        752.0146698397632        754.2798309670796        757.0830576414253        761.2595401086719
1.5                      759.3314599882482        756.0052684898782        757.842970939441         760.1188439066226        763.6905141358817
1.6                      761.9226174954323        759.1321371722712        760.6347213812006        762.4955608019492        765.5329075249878
1.7000000000000002       764.2069261953359        761.8904673237402        763.097516471857         764.5931365810578        767.1593025361933
1.8                      765.9188149484927        763.9874432310289        764.9697368250243        766.1869127496523        768.3493844948881
1.9000000000000001       767.3306915029616        765.7284839007369        766.5241553474866        767.5100542987897        769.3211299431995
2                        768.5124268863582        767.191927559358         767.8307367280534        768.6223667136733        770.1304486161429
2.1                      769.3666670989517        768.2686225322269        768.7919964653163        769.440520703403         770.6994393219228
2.2                      770.2312710137902        769.3478381567295        769.7555211372099        770.2607344203439        771.2851323173705
2.3000000000000003       770.9667899509611        770.2689064747956        770.5778470275723        770.9607460752591        771.7814403190522
2.4000000000000004       771.5652730992891        771.0226668361441        771.2507944038193        771.5335847854201        772.1823146504647
2.5                      772.0267204587255        771.6091192407747        771.7743632659513        771.9792505508269        772.4877553116078
2.6                      772.3511320293748        772.0282636886876        772.1485536139678        772.2977433714794        772.6977623024814
2.7                      772.6968794189852        772.4703000848176        772.5431942579979        772.6336540431583        772.9246143474084
2.8000000000000003       772.9646444665112        772.8159500746607        772.8517819848752        772.8963066414826        773.0978991005593
2.9000000000000004       773.1501594539517        773.0600882472539        773.0697403336093        773.0818048067243        773.2145909315859
3                        773.2534243812474        773.2027146025971        773.1970693042001        773.1901485388834        773.2746898404883
3.1                      773.2744392484524        773.2438291406902        773.2337688966479        773.2213378379599        773.2781958272665
3.2                      773.3618346980734        773.3630954502726        773.3402454222762        773.3119513037587        773.3301524215374
3.3000000000000003       773.4224013330081        773.4478427219844        773.4159047147875        773.3763376282478        773.3646846200072
3.4000000000000004       773.4521339297788        773.4932294721897        773.4564242259304        773.4108163603096        773.3789617627008
3.5                      773.4510324883666        773.4992557008884        773.4618039557043        773.4153874999439        773.3729838496176
3.6                      773.4190970087861        773.4659214080804        773.4320439041097        773.3900510471508        773.3467508807579
3.7                      773.4206835618147        773.4734042060991        773.4387241825507        773.3957327785134        773.3439323598694
3.8000000000000003       773.4154331040488        773.4714230305534        773.4369554000128        773.3942248601201        773.3371422241104
3.9000000000000004       773.4016114005607        773.4578172956465        773.4248086518111        773.3838854949189        773.3252036897522
4                        773.3792184513499        773.4325870013778        773.4022839379458        773.3647146829102        773.3081167567954
4.1000000000000005       773.3482542564428        773.3957321477478        773.3693812584164        773.3367124240934        773.2858814252396
4.2                      773.3290471782335        773.3721800673089        773.3483547753433        773.3188172342032        773.2725527706408
4.3                      773.3103637696505        773.3492526599636        773.3278859762326        773.301396643775         773.2595983764288
4.4                      773.2916803610349        773.3263252526181        773.3074171771217        773.2839760533467        773.2466439822169
4.5                      773.2729969524622        773.3033978452727        773.2869483780108        773.2665554629185        773.233689588005
4.6000000000000005       773.2543135439236        773.2804704379273        773.2664795789           773.2491348724905        773.220735193793
4.7                      773.2442071350627        773.2679428346196        773.2552953608504        773.2396161006008        773.2138077563262
4.800000000000001        773.2343783723306        773.2557518834279        773.2444116940277        773.2303531185244        773.2070754175109
4.9                      773.2245496096019        773.2435609322364        773.2335280272051        773.221090136448         773.2003430786954
5                        773.2147208468874        773.2313699810447        773.2226443603823        773.2118271543717        773.1936107398801
