% Model:              all_models_pine_case_sol1.mph
% Version:            COMSOL 4.3.2.164
% Date:               Sep 24 2015, 14:22
% Table:              20000tempsPine - 
% Time                   Tvol (K)                 Tst (K), Point: 6        Tc (K), Point: 9         Tl (K), Point: 10        Tw (K), Point: 11        Tsa (K)
0                        293.1980519419785        294.4136242318855        293.15093854246896       293.31063664194414       293.52248557025297       294.53350510688796
0.05                     308.4308376301162        412.05241713685524       293.1504568969428        397.67204605278914       399.80668895981336       410.00737386835425
0.1                      320.8451306468911        448.32153483679383       293.1542834476315        440.0285377023464        433.5421838118202        444.3056930278508
0.15000000000000002      331.8925992488071        472.6775081328726        293.1751695190892        468.7933592582466        455.81887781643144       467.199425159713
0.2                      342.01016359293385       491.38273152778635       293.2658844396014        490.92280798733003       472.6668098068691        484.70311438820113
0.25                     351.4199575815225        506.6651113524873        293.5233083572277        508.97459133382904       486.2656061774245        498.94888256002605
0.30000000000000004      360.2442458593381        519.5252250788154        294.0461605989542        524.1121233125971        497.5824387553457        510.89443846488524
0.35000000000000003      368.5842394543747        530.6833769358693        294.92735417295273       537.1817739732585        507.31082216380554       521.2292240575449
0.4                      376.5148067238542        540.5825408922631        296.2096016195918        548.7119871578637        515.8694449596171        530.3768357559985
0.45                     384.0828659181466        549.472020383103         297.89550351107306       559.0026971543666        523.495164588699         538.5752439575199
0.5                      391.31761001307495       557.4931874146072        299.96728976785363       568.2245909286466        530.3271691138056        545.9590658791075
0.55                     398.2586613970628        564.8288191282362        302.38770213064623       576.6005094474011        536.5344775256735        552.7029887138945
0.6000000000000001       404.9272532045905        571.5660196748819        305.1213419175726        584.2371978857827        542.2002263728791        558.8899648665656
0.65                     411.3450118325794        577.7915852736764        308.13085165038586       591.2412904287585        547.40637763721          564.6027392185221
0.7000000000000001       417.532463163329         583.5814146049573        311.3737054457604        597.7066448946009        552.2241888418708        569.9136726490992
0.75                     423.508275633026         588.9980279901196        314.8062632942469        603.7110685412181        556.7123395753789        574.882304352509
0.8                      429.2978546572894        594.1149296537466        318.36900865768445       609.3469157925598        560.9399199673497        579.578404926477
0.8500000000000001       434.90482671021084       598.9429273338361        322.0535007825304        614.6277375096297        564.917087160484         584.0122396719282
0.9                      440.3335585729239        603.4924379534634        325.85012030149664       619.56659503011          568.6541801866895        588.1936183446736
0.9500000000000001       445.60734591592075       607.8237980964205        329.70655136672383       624.2391407242613        572.2098256792733        592.1795540433159
1                        450.71392979063745       611.9052566666159        333.65032429909036       628.6055638251039        575.5531723743643        595.9400445990623
1                        450.71392979063745       611.9052566666159        333.65032429909036       628.6055638251039        575.5531723743643        595.9400445990623
1.1                      460.5030666752953        619.5058351371647        341.6405715167904        636.6571242762345        581.7797431671263        602.9613970073534
1.2                      469.7553919967746        626.4166109624837        349.71942292215004       643.876136100834         587.4496778346602        609.3724157268819
1.3                      478.52545421830365       632.7506082123672        357.7969579127968        650.4055476188807        592.6697432367571        615.2781638023769
1.4                      486.8618753977629        638.597523158564         365.8093015497791        656.3591225068602        597.5225574911841        620.7609198585204
1.5                      494.83281403689614       644.0657196614394        373.6993319908721        661.8733382126231        602.1022319860311        625.917347832607
1.6                      502.4435801352175        649.1639066402137        381.4621276103052        666.9591753774865        606.4164230195291        630.7552623815
1.7000000000000002       509.7074777739128        653.9101708185567        389.09360566566863       671.6389280462926        610.4798086188857        635.2901766936776
1.8                      516.6799582181937        658.3840599204442        396.56755281499784       676.011335090523         614.3585891565646        639.5912832882093
1.9                      523.3312538911516        662.5428708085467        403.8980410126598        680.0233911018778        618.017226675534         643.6214379515807
2                        529.7202390993706        666.4667037611839        411.06698197390443       683.7744108646012        621.5185728427236        647.449556482155
2.1                      535.8616050952869        670.1755466725097        418.0698620225173        687.2891769816629        624.8783114047108        651.0928358449281
2.2                      541.7383996387765        673.6459616993716        424.91274016584117       690.5385414714681        628.0778309135334        654.5310380741624
2.3                      547.4239428648447        676.9690542046505        431.592772225405         693.6334314076128        631.183512900477         657.840863661436
2.4000000000000004       552.8845028921996        680.1029099816861        438.11126670249183       696.5228133477191        634.1648176790433        660.9870255484234
2.5                      558.1426538769143        683.0731558391567        444.4726704123811        699.2373434599808        637.0387540931216        663.9907267132837
2.6                      563.2286618363669        685.9141506000432        450.6829453670012        701.8181236182013        639.8281265372691        666.8803947836615
2.7                      568.1232342358521        688.6039928435497        456.73829118785545       704.2389541637325        642.5183987556468        669.6379090737812
2.8                      572.8640909383669        691.1822346378738        462.65311772406733       706.5461294208154        645.1337045129802        672.2956454139904
2.9000000000000004       577.4457378930007        693.6431150640801        468.42532612274624       708.7329064336132        647.6705286286855        674.8488881334727
3                        581.872691379062         695.9903091380787        474.0585951409729        710.8032137047106        650.1307023004701        677.300663991267
3.1                      586.1937038057577        698.2698560914024        479.58090778970256       712.8091517119443        652.5403475820676        679.6887477366029
3.2                      590.384093005544         700.4584473727771        484.97809694615887       714.7243432413898        654.8862395084085        681.9940149260404
3.3000000000000003       594.4438589782642        702.5560829822027        490.2501626103418        716.5487882930471        657.1683780794933        684.2164655595784
3.4000000000000004       598.3730017240006        704.5627629196791        495.3971047822514        718.2824868669162        659.3867632953215        686.3560996372155
3.5                      602.1715212427866        706.4784871852069        500.41892346188763       719.9254389629971        661.5413951558934        688.4129171589678
3.6                      605.893744395326         708.3506660061124        505.3538819679081        721.5294360270549        663.658456451389         690.4263565998006
3.7                      609.504111939251         710.1482673708748        510.17693532979973       723.0605783536402        665.72080943132          692.3706037993917
3.8000000000000003       613.0017046970121        711.87048912733          514.887436155521         724.5179896630416        667.7280110988272        694.2449914827722
3.9000000000000004       616.3865226687249        713.5173312754778        519.4853844450718        725.9016699552598        669.6800614539105        696.0495196499246
4                        619.6585658543684        715.0887938153187        523.9707801984521        727.2116192302942        671.5769604965698        697.7841883008523
4.1                      622.866039126852         716.6254035392477        528.3792382904519        728.4916890062831        673.4412629130721        699.483145095043
4.2                      625.9956019113295        718.1159447615148        532.7009023959076        729.729743488162         675.266726751898         701.1369397554164
4.300000000000001        629.0338815931271        719.5491748598539        536.9258925178926        730.9136177345412        677.0470950703425        702.7360993082898
4.4                      631.9808781722911        720.9250938342647        541.0542086564068        732.0433117454204        678.7823678684058        704.2806237536903
4.5                      634.8365916488026        722.2437016847472        545.0858508114501        733.1188255207999        680.4725451460878        705.7705130915941
4.6                      637.6261398604645        723.5247816096294        549.0410152041036        734.1609421295788        682.1290132937976        707.2228126635001
4.7                      640.3603578038052        724.776867420137         552.9284138098191        735.1786266937639        683.7566840201823        708.6448752606141
4.800000000000001        643.0200930632153        725.9848743768138        556.7326469582312        736.1560320700235        685.3468751733561        710.0237037663373
4.9                      645.605345638561         727.1488024796595        560.4537146493399        737.0931582583571        686.899586753319         711.3592981806647
5                        648.1161155298657        728.2686517286742        564.0916168831454        737.9900052587654        688.414818760071         712.6516585035996
5                        648.1161155298657        728.2686517286742        564.0916168831454        737.9900052587654        688.414818760071         712.6516585035996
6                        670.1847357572526        737.8116647144493        596.8219623165139        745.5227232030012        701.9766287011261        723.8812193586484
7                        687.8641423032226        745.0728267408936        624.0408211614291        751.135395356435         713.1635896640375        732.7160001244873
8                        702.1521602395079        750.6645394508896        646.7779704787806        755.3917193839125        722.4460645329349        739.7456481214717
9                        713.7408573277238        754.9883525781939        665.789608371774         758.6470483155513        730.1638613065832        745.3679426496878
10                       723.2336865892843        758.3809281112559        681.7648797889157        761.1911747361235        736.6213609982693        749.9223143749623
11                       731.069273184901         761.0728784142468        695.2378559981686        763.2136648325298        742.0494899318205        753.6479400302226
12                       737.5779959373837        763.2287065097458        706.6353214281469        764.8441356054888        746.6293402670672        756.7200983938227
13                       743.0783013777966        764.9967987759325        716.399170177302         766.1940982599489        750.5449992266185        759.3026767416749
14                       747.7647949500206        766.4644603559329        724.8099593914321        767.3275462423647        753.9122617390587        761.4942103252008
15                       751.7096785644595        767.6612101868114        731.9807876363396        768.264851960712         756.7779906439771        763.3301678162209
16                       755.0414086595258        768.6419520597229        738.10542154573          769.0450927204511        759.2224643129997        764.8745955152174
17                       757.7996035385067        769.4221206238217        743.2480513265516        769.6791244166293        761.271499895291         766.1466219873706
18                       760.1704471375583        770.078739743648         747.6970669780547        770.2215473512798        763.0432546127523        767.2380115876599
19                       762.1229731790859        770.5975306259952        751.408740300765         770.6620554163942        764.519455965338         768.1329687118096
20                       763.8153512891237        771.0399862687037        754.6394436496696        771.0437448805347        765.8041861019564        768.9080186500204
21                       765.2056885262092        771.3890504420523        757.3233538902465        771.354662562021         766.8705446983771        769.542648652661
22                       766.4182179409229        771.6896251816509        759.6710229439801        771.6262788935237        767.803228068295         770.0958863242923
23                       767.4182603493683        771.9285890380052        761.6250982882874        771.8495059459689        768.579080202634         770.551110132445
24                       768.3434053095583        772.1507896108511        763.4305927316456        772.0566779050192        769.2959490682607        770.9724949998891
25                       769.1403553361648        772.3388544751064        764.992596698413         772.2352696138917        769.9159317119769        771.3351817581166
26                       769.8091104291611        772.492783630771         766.3111101885896        772.3852810725865        770.4390281337824        771.6391704071402
27                       770.3496705886859        772.6125770778448        767.3861332021754        772.5067122811037        770.865238333677         771.8844609469721
28                       770.8603796649369        772.726783230742         768.3999517810371        772.6215150847507        771.2673841933175        772.1163451850498
29                       771.2856826015746        772.8192749115469        769.2495913996526        772.7172887487723        771.6043281761463        772.3092374959768
30                       771.6224950966664        772.8891567726496        769.9293351250408        772.7933448099856        771.873786411096         772.4617174186872
31                       771.8708171501746        772.9364288140501        770.4391829572016        772.849683268391         772.0757588981669        772.5737849531731
32                       772.1106446754512        772.9835430367111        770.9288590466506        772.9041526759243        772.2698154069805        772.6821704783297
33                       772.3215774064121        773.0247738132184        771.3601812864936        772.9522013599554        772.4407646721095        772.7775071468841
34                       772.4854355137209        773.0550187136206        771.6991234448894        772.9897730679426        772.5750688989839        772.8514476322015
35                       772.6022189974107        773.0742777379177        771.9456855218385        773.0168677998851        772.6727280876037        772.9039919342648
36                       772.7059366898679        773.0913147992368        772.1649736560718        773.0410026878611        772.7595965438625        772.9506640953873
37                       772.8048819625557        773.1082670596412        772.3728645875515        773.0640108547315        772.8419790817082        772.9952497982448
38                       772.8807015797898        773.1204049782777        772.5342230817712        773.0818355985699        772.9059231443118        773.0293713249201
39                       772.9333955416589        773.1277285551464        772.6490491387308        773.0944769193763        772.9514287316733        773.0530286753948
40                       772.9765788226715        773.1333421528122        772.7441641381662        773.1049424139813        772.9891236560942        773.0723979661491
41                       773.0263932629574        773.140926286708         772.8513673625295        773.1167978728862        773.0316081942411        773.0948015674097
42                       773.0675281650891        773.146989951            772.9404968732069        773.1266611080058        773.0669308572118        773.1132941375325
43                       773.0999835291736        773.1515331456884        773.0115526701992        773.1345321193403        773.0950916450064        773.1278756765033
44                       773.1237593551394        773.154555870773         773.0645347535059        773.1404109068897        773.116090557625         773.1385461843133
45                       773.1388556430591        773.1560581262537        773.099443123127         773.1442974706541        773.1299275950674        773.1453056609788
46                       773.1440133604614        773.1560218257248        773.1130738396935        773.145826951987         773.135333949534         773.147593851705
47                       773.1448020406689        773.1555111950606        773.1167698750832        773.146244544627         773.1368047202237        773.1479235005826
48                       773.1455907207734        773.1550005643963        773.120465910473         773.1466621372672        773.1382754909135        773.1482531494746
49                       773.1463794009363        773.1544899337321        773.1241619458626        773.1470797299071        773.1397462616034        773.1485827983615
50                       773.1471680810785        773.153979303068         773.1278579812525        773.1474973225472        773.1412170322931        773.1489124472535
51                       773.1479567612104        773.1534686724037        773.1315540166422        773.1479149151872        773.1426878029828        773.1492420961391
52                       773.1484959367011        773.1530426173367        773.1343597610949        773.1482321228069        773.1438037932083        773.1494640904453
53                       773.1486764708128        773.1527381323508        773.1358857895897        773.1484050356715        773.1444098173068        773.1495313406529
54                       773.148857004978         773.1524336473649        773.1374118180845        773.1485779485361        773.1450158414056        773.1495985908579
55                       773.1490375391103        773.152129162379         773.1389378465794        773.1487508614007        773.145621865504         773.1496658410483
56                       773.1492180732753        773.1518246773932        773.1404638750741        773.1489237742652        773.1462278896025        773.1497330912567
57                       773.1493986073492        773.1515201924072        773.141989903569         773.1490966871297        773.146833913701         773.1498003414598
58                       773.1495250550194        773.1512845058254        773.1431604698814        773.1492292967           773.1472982228712        773.149846390915
59                       773.1495737580333        773.1511477109788        773.1438200901555        773.1493039737823        773.1475588291303        773.1498619661518
60                       773.1496224610179        773.151010916132         773.1444797104293        773.1493786508644        773.1478194353895        773.1498775413987
