% Model:              gavins_cube.mph
% Version:            COMSOL 5.2.0.166
% Date:               Jan 29 2016, 09:11
% Table:              Table 1 - Volume Average 1 (T)
% Time (s)               volume average (K)       center (K), Point: 5     corner (K), Point: 2     surface average (K)
0                        293.02556287016756       293.00000012083774       294.538662965975         293.7320644846574
0.05                     345.16323443500085       293.341138687687         535.8499894880027        421.7112448077649
0.1                      388.49948402491066       297.8160901160735        595.6736174488061        475.7138766376995
0.15000000000000002      425.9275427570643        310.98493446365757       628.4301487907553        513.5290589939661
0.2                      458.85725669001107       332.6164143010746        649.8368532335395        542.9032611278172
0.25                     488.1488269750661        360.07522957988704       665.4650136892761        567.0356419093151
0.30000000000000004      514.5396315224764        389.63167987699387       678.0421527795835        587.828343603792
0.35000000000000003      538.3500063601476        419.69190157303905       688.3775521703851        605.9341384279445
0.4                      559.82427702158          449.2439137982154        696.9437864690293        621.7763152198703
0.45                     579.3325769258146        477.1826981062504        704.3981395461902        635.9503429755756
0.5                      597.0691001135021        503.4214051279959        710.9247066912467        648.6705423194702
0.55                     613.3452722789483        527.6165294200961        716.8834154555693        660.3202936258555
0.6000000000000001       628.0577325432889        549.885370249791         722.1537647594419        670.7717151209612
0.65                     641.5184499112238        570.4028347544071        726.9338276656216        680.3055282269072
0.7000000000000001       653.7649642422301        589.1899698625126        731.2474387052022        688.9555127185523
0.75                     664.699737391204         606.1920902769035        735.0326696774792        696.6339001112223
0.8                      674.7950248862184        621.8231287569427        738.5468838044609        703.7359440232276
0.8500000000000001       683.9483259915224        635.9932432364944        741.7342216667374        710.1758566039668
0.9                      692.0940337387732        648.644929098196         744.5589296949914        715.8987281910235
0.9500000000000001       699.6854945474334        660.3832531414553        747.2067493354781        721.2426170164706
1                        706.5152207072106        670.9312882319798        749.5926703934866        726.0528004984003
1.05                     712.6122350638398        680.3353513229144        751.726377485185         730.3494185701549
1.1                      718.2855441896155        689.0752969842553        753.7148485650532        734.3495333915192
1.1500000000000001       723.3755942997423        696.9033550400321        755.5028461751951        737.9410661517637
1.2000000000000002       727.9416742590215        703.914577075417         757.1100480614061        741.1650792310622
1.25                     732.1743699128551        710.4145092798877        758.5997089314786        744.1535688898517
1.3                      735.9644603241751        716.2280492419154        759.9355787772095        746.8308907106538
1.35                     739.4211946507336        721.5272033236502        761.1548560088775        749.2733375158532
1.4000000000000001       742.705035775138         726.5646108796179        762.3121768750772        751.592966610555
1.4500000000000002       745.7081341322697        731.1704691238132        763.3708195149344        753.7144625608828
1.5                      748.4304897221268        735.3447780562357        764.3307839284491        755.6378253668441
1.55                     750.8721025447148        739.0875376768859        765.1920701156216        757.3630550284361
1.6                      753.032972600028         742.3987479857632        765.9546780764515        758.890151545658
1.6500000000000001       755.0823047170044        745.5396224282703        766.6777516447038        760.3383087851336
1.7000000000000002       756.9877794980684        748.4602672676501        767.3499939023808        761.6847598200044
1.75                     758.6879763377685        751.0658631771054        767.9499358990877        762.886237803219
1.8                      760.1828952360977        753.3564101566366        768.4775776348241        763.9427427347765
1.85                     761.4725361930621        755.3319082062435        768.9329191095907        764.8542746146782
1.9000000000000001       762.556899208655         756.9923573259259        769.3159603233869        765.6208334429207
1.9500000000000002       763.7076961435397        758.755815468375         769.7220881420426        766.4341006692621
2                        764.7388662366203        760.3360081195831        770.0859842801805        767.1628181427203
2.0500000000000003       765.6470530573603        761.7277710497867        770.4064704330026        767.8046180407409
2.1                      766.432256605758         762.9311042589859        770.6835466005089        768.3595003633299
2.15                     767.0944768818132        763.9460077471806        770.9172127826992        768.8274651104831
2.2                      767.6769815689001        764.8387906730846        771.1227364352304        769.2390881456479
2.25                     768.2860418770109        765.7723171879863        771.337616468602         769.6694678737032
2.3000000000000003       768.8252498477032        766.5988389004873        771.5278343240235        770.0504759285842
2.35                     769.2946054809812        767.3183558105875        771.6933900014948        770.382112310288
2.4000000000000004       769.6941087768453        767.9308679182868        771.8342835010158        770.664377018813
2.45                     770.0237597352874        768.4363752235857        771.9505148225867        770.8972700541665
2.5                      770.3386591163141        768.9192342594829        772.0615529642682        771.1197467626006
2.5500000000000003       770.6517751716536        769.3992987767309        772.1719800564674        771.3409754883805
2.6                      770.9264973903574        769.8205198973234        772.268860343548         771.5350731923054
2.6500000000000004       771.1628257724217        770.1828976212602        772.3521938255099        771.7020398743736
2.7                      771.3607603178509        770.4864319485416        772.421980502353         771.8418755345916
2.75                     771.5203010266417        770.7311228791672        772.4782203740774        771.954580172952
2.8000000000000003       771.7076884400451        771.0184624514606        772.54429455456          772.0869686737865
2.85                     771.8908924395428        771.2993749490271        772.6088972809785        772.2164040497601
2.9000000000000004       772.059609682786         771.5580738580994        772.6683917530263        772.3356045098205
2.95                     772.2138401697785        771.7945591786779        772.7227779707035        772.4445700539746
3                        772.3535839005176        772.0088309107621        772.7720559340099        772.543300682221
3.0500000000000003       772.478840875002         772.2008890543522        772.8162256429457        772.6317963945523
3.1                      772.5896110932331        772.3707336094483        772.8552870975108        772.7100571909776
3.1500000000000004       772.6858945552118        772.5183645760502        772.8892402977052        772.7780830714918
3.2                      772.7676912609361        772.6437819541582        772.9180852435287        772.835874036099
3.25                     772.83500121041          772.7469857437718        772.9418219349816        772.8834300847948
3.3000000000000003       772.8878244036273        772.8279759448917        772.9604503720639        772.9207512175805
3.35                     772.9136003527283        772.8674961919504        772.9695404962449        772.9389627300757
3.4000000000000004       772.9176532405245        772.8737118309667        772.9709692887894        772.9418258901137
3.45                     772.9217061283189        772.879927469983         772.9723980813338        772.9446890501498
3.5                      772.9257590161118        772.8861431089992        772.9738268738784        772.9475522101854
3.5500000000000003       772.9298119039067        772.8923587480156        772.9752556664228        772.9504153702251
3.6                      772.9338647917019        772.8985743870319        772.9766844589674        772.9532785302592
3.6500000000000004       772.9379176794952        772.9047900260482        772.9781132515118        772.9561416903
3.7                      772.941970567288         772.9110056650644        772.9795420440563        772.9590048503347
3.75                     772.9460234550828        772.9172213040806        772.9809708366007        772.9618680103723
3.8000000000000003       772.9500763428764        772.923436943097         772.9823996291452        772.9647311704093
3.85                     772.9541292306698        772.9296525821132        772.9838284216899        772.9675943304463
3.9000000000000004       772.9581821184632        772.9358682211296        772.9852572142343        772.9704574904855
3.95                     772.9622350062591        772.9420838601459        772.9866860067788        772.9733206505201
4                        772.9662878940509        772.9482994991622        772.9881147993232        772.976183810558
4.05                     772.9703407818452        772.9545151381784        772.9895435918677        772.9790469705946
4.1000000000000005       772.9743936696401        772.9607307771946        772.9909723844122        772.9819101306329
4.15                     772.9784465574347        772.966946416211         772.9924011769567        772.98477329067
4.2                      772.9824994452292        772.9731620552272        772.9938299695011        772.9876364507058
4.25                     772.986552333021         772.9793776942436        772.9952587620456        772.9904996107409
4.3                      772.9906052208163        772.9855933332599        772.99668755459          772.9933627707812
4.3500000000000005       772.9932208341293        772.9896047104528        772.9976096582435        772.995210571451
4.4                      772.9938333025356        772.9905439842235        772.9978255841372        772.9956432548449
4.45                     772.9944457709361        772.991483257994         772.9980415100308        772.9960759382412
4.5                      772.9950582393411        772.9924225317645        772.9982574359245        772.9965086216366
4.55                     772.9956707077442        772.9933618055351        772.9984733618181        772.9969413050308
4.6000000000000005       772.9962831761492        772.9943010793056        772.9986892877118        772.9973739884282
4.65                     772.9968956445526        772.9952403530762        772.9989052136054        772.9978066718221
4.7                      772.9975081129552        772.9961796268467        772.9991211394992        772.9982393552166
4.75                     772.9981205813608        772.9971189006174        772.9993370653928        772.9986720386125
4.800000000000001        772.9987330497653        772.9980581743879        772.9995529912865        772.9991047220074
4.8500000000000005       772.9993455181683        772.9989974481584        772.9997689171801        772.9995374054031
4.9                      772.9999579865741        772.999936721929         772.9999848430738        772.9999700887968
4.95                     773.0005704549773        773.0008759956995        773.0002007689673        773.0004027721916
5                        773.0011829233794        773.0018152694701        773.000416694861         773.0008354555864
5.050000000000001        773.0017953917833        773.0027545432406        773.0006326207546        773.0012681389842
5.1000000000000005       773.0024078601882        773.0036938170111        773.0008485466483        773.0017008223774
5.15                     773.0030203285914        773.0046330907818        773.0010644725419        773.0021335057733
5.2                      773.0036327969955        773.0055723645523        773.0012803984356        773.0025661891682
5.25                     773.0042452653989        773.0065116383229        773.0014963243292        773.0029988725635
5.300000000000001        773.0048577338017        773.0074509120934        773.0017122502229        773.0034315559585
5.3500000000000005       773.005175771986         773.0079386226054        773.0018243832975        773.0036562424378
5.4                      773.0050834596058        773.0077969845443        773.0017918592035        773.0035910413783
5.45                     773.0049911472223        773.007655346483         773.0017593351096        773.0035258403177
5.5                      773.0048988348433        773.0075137084219        773.0017268110154        773.0034606392592
5.550000000000001        773.0048065224591        773.0073720703608        773.0016942869214        773.0033954381985
5.6000000000000005       773.0047142100793        773.0072304322997        773.0016617628274        773.0033302371398
5.65                     773.004621897698         773.0070887942386        773.0016292387334        773.0032650360788
5.7                      773.0045295853164        773.0069471561776        773.0015967146393        773.0031998350181
5.75                     773.004437272934         773.0068055181165        773.0015641905453        773.0031346339574
5.800000000000001        773.0043449605507        773.0066638800554        773.0015316664512        773.0030694328987
5.8500000000000005       773.0042526481692        773.0065222419943        773.0014991423573        773.0030042318391
5.9                      773.0041603357872        773.0063806039332        773.0014666182632        773.0029390307801
5.95                     773.0040680234056        773.0062389658722        773.0014340941691        773.0028738297182
6                        773.0039757110242        773.0060973278111        773.0014015700751        773.0028086286585
6.050000000000001        773.0038833986436        773.00595568975          773.0013690459809        773.0027434276002
6.1000000000000005       773.0037910862609        773.0058140516888        773.001336521887         773.0026782265388
6.15                     773.0036987738775        773.0056724136277        773.001303997793         773.0026130254786
6.2                      773.0036064614964        773.0055307755665        773.0012714736989        773.0025478244193
6.25                     773.0035141491174        773.0053891375055        773.0012389496048        773.0024826233582
6.300000000000001        773.0034218367346        773.0052474994444        773.0012064255109        773.0024174223001
6.3500000000000005       773.0033227951111        773.0050955654795        773.001171521837         773.002347462517
6.4                      773.0032143748773        773.0049292820023        773.0011333017173        773.0022708704563
6.45                     773.0031059546448        773.0047629985252        773.0010950815976        773.0021942783914
6.5                      773.0029975344063        773.0045967150479        773.0010568614779        773.0021176863283
6.550000000000001        773.0028891141724        773.0044304315709        773.0010186413583        773.0020410942647
6.6000000000000005       773.0027806939337        773.0042641480936        773.0009804212385        773.0019645022034
6.65                     773.0026722737027        773.0040978646166        773.0009422011188        773.0018879101418
6.7                      773.0025638534651        773.0039315811393        773.000903980999         773.0018113180779
6.75                     773.0024554332313        773.0037652976623        773.0008657608794        773.0017347260139
6.800000000000001        773.0023470129956        773.003599014185         773.0008275407596        773.0016581339527
6.8500000000000005       773.0022385927618        773.0034327307079        773.0007893206399        773.0015815418875
6.9                      773.0021301725236        773.0032664472309        773.0007511005203        773.0015049498252
6.95                     773.0020217522899        773.0031001637536        773.0007128804006        773.0014283577624
7                        773.0019133320566        773.0029338802766        773.0006746602809        773.0013517656993
7.050000000000001        773.0018049118206        773.0027675967993        773.0006364401611        773.001275173638
7.1000000000000005       773.0016964915869        773.0026013133223        773.0005982200414        773.0011985815739
7.15                     773.0015880713472        773.0024350298451        773.0005599999216        773.0011219895093
7.2                      773.0014796511144        773.0022687463679        773.0005217798019        773.0010453974462
7.25                     773.0013712308803        773.0021024628908        773.0004835596824        773.0009688053838
7.300000000000001        773.0012628106466        773.0019361794136        773.0004453395626        773.0008922133209
7.3500000000000005       773.0011803950839        773.0018097865023        773.000416284364         773.0008339904533
7.4                      773.0011342225206        773.0017389895021        773.0004000024145        773.0008013689272
7.45                     773.0010880499561        773.0016681925018        773.0003837204652        773.0007687474047
7.5                      773.001041877393         773.0015973955014        773.0003674385157        773.0007361258771
7.550000000000001        773.0009957048298        773.0015265985012        773.0003511565662        773.0007035043527
7.6000000000000005       773.0009495322656        773.0014558015008        773.0003348746169        773.0006708828287
7.65                     773.0009033596991        773.0013850045005        773.0003185926673        773.000638261303
7.7                      773.0008571871379        773.0013142075003        773.000302310718         773.0006056397783
7.75                     773.0008110145737        773.0012434104999        773.0002860287685        773.0005730182547
7.800000000000001        773.0007648420099        773.0011726134996        773.0002697468191        773.0005403967285
7.8500000000000005       773.0007186694452        773.0011018164993        773.0002534648697        773.0005077752054
7.9                      773.0006724968823        773.001031019499         773.0002371829203        773.000475153678
7.95                     773.0006263243173        773.0009602224987        773.0002209009709        773.0004425321547
8                        773.0005801517538        773.0008894254984        773.0002046190214        773.0004099106304
8.05                     773.0005339791901        773.000818628498         773.0001883370719        773.0003772891052
8.1                      773.0004878066273        773.0007478314976        773.0001720551226        773.0003446675784
8.15                     773.0004416340629        773.0006770344974        773.0001557731731        773.000312046054
8.200000000000001        773.0003954614971        773.000606237497         773.0001394912236        773.0002794245287
8.25                     773.0003492889336        773.0005354404967        773.0001232092743        773.0002468030041
8.3                      773.0003031163709        773.0004646434965        773.0001069273249        773.0002141814795
8.35                     773.0002709054825        773.0004152562146        773.0000955680877        773.0001914236418
8.4                      773.0002581531302        773.0003957078878        773.0000910696873        773.000182412934
8.450000000000001        773.0002454007763        773.000376159561         773.000086571287         773.0001734022259
8.5                      773.0002326484266        773.0003566112342        773.0000820728868        773.0001643915142
8.55                     773.0002198960738        773.0003370629074        773.0000775744866        773.0001553808052
8.6                      773.0002071437232        773.0003175145805        773.0000730760862        773.0001463700972
8.65                     773.0001943913716        773.0002979662538        773.0000685776861        773.0001373593874
8.700000000000001        773.0001816390221        773.000278417927         773.0000640792857        773.0001283486777
8.75                     773.0001688866673        773.0002588696002        773.0000595808855        773.0001193379692
8.8                      773.0001561343166        773.0002393212733        773.0000550824852        773.0001103272605
8.85                     773.0001433819662        773.0002197729466        773.000050584085         773.0001013165523
8.9                      773.0001306296127        773.0002002246198        773.0000460856846        773.0000923058415
8.950000000000001        773.000117877261         773.0001806762929        773.0000415872845        773.0000832951307
9                        773.0001051249094        773.0001611279661        773.0000370888841        773.0000742844239
9.05                     773.0000923725579        773.0001415796394        773.000032590484         773.0000652737158
9.1                      773.0000796202067        773.0001220313125        773.0000280920838        773.0000562630054
9.15                     773.000066867856         773.0001024829857        773.0000235936834        773.000047252295
9.200000000000001        773.0000541155053        773.0000829346588        773.0000190952833        773.0000382415869
9.25                     773.0000413631518        773.0000633863319        773.0000145968829        773.0000292308789
9.3                      773.0000286107995        773.0000438380052        773.0000100984827        773.0000202201705
9.35                     773.0000203924856        773.000031240369         773.0000071993547        773.000014413101
9.4                      773.0000184933085        773.0000283299847        773.0000065291498        773.0000130709774
9.450000000000001        773.0000165941344        773.0000254196005        773.0000058589449        773.0000117288553
9.5                      773.000014694958         773.0000225092164        773.0000051887398        773.0000103867336
9.55                     773.000012795783         773.0000195988321        773.000004518535         773.0000090446118
9.600000000000001        773.0000108966042        773.000016688448         773.00000384833          773.0000077024908
9.65                     773.0000089974316        773.0000137780638        773.0000031781251        773.0000063603665
9.700000000000001        773.0000070982553        773.0000108676795        773.0000025079202        773.0000050182454
9.75                     773.0000051990796        773.0000079572953        773.0000018377152        773.0000036761237
9.8                      773.0000032999053        773.0000050469113        773.0000011675104        773.0000023340014
9.850000000000001        773.0000014007267        773.0000021365271        773.0000004973055        773.0000009918779
9.9                      772.9999995015538        772.9999992261428        772.9999998271004        772.9999996497568
9.950000000000001        772.9999976023756        772.9999963157586        772.9999991568955        772.9999983076341
10                       772.9999957032005        772.9999934053744        772.9999984866905        772.9999969655119
