% Model:              all_models_oak_case_sol1.mph
% Version:            COMSOL 4.3.2.164
% Date:               Sep 24 2015, 14:18
% Table:              5400tempsOak - 
% Time                   Tv (K)                   Tst (K), Point: 32       Tc (K), Point: 35        Tl (K), Point: 36        Tw (K), Point: 37        Tsa (K)
0                        293.28295886499075       295.01152061912705       293.16177607407917       294.1198872259833        296.09948602814836       295.7320600813054
0.05                     337.17686110289463       401.68896937380185       298.83150531252915       411.4725440458184        383.86683219734465       393.57514129587236
0.1                      372.11069257919945       444.4544418416277        320.3906177928111        458.76348694269757       414.01993937557484       430.90747583220605
0.15000000000000002      401.69860803846785       476.1950960871463        345.05333767974304       491.92846205922973       436.5130500753135        459.16159250987886
0.2                      427.3279409010528        501.7248062079355        368.79479285911594       517.536476079299         455.86408644980014       482.56726375552466
0.25                     449.9586176765407        523.2748631575142        390.84640050921564       538.5533385164367        473.4276990741184        502.8097187422414
0.30000000000000004      470.1936324630257        541.9382097397385        411.26168582861936       556.3666417609106        489.5985101615178        520.6644363786107
0.35000000000000003      488.40441360932584       558.2948789749045        430.1794886909013        571.6887091846136        504.54453897762585       536.5540717067012
0.4                      504.9313567558431        572.838253203907         447.751866150987         585.1155111342921        518.4129824593807        550.8514621380896
0.45                     520.0256427843966        585.8987741012292        464.1134745553625        597.035868747973         531.3153055666684        563.8189873098241
0.5                      533.8971645776898        597.7319167927061        479.39152744667575       607.7420333609331        543.3536116832418        575.668462560553
0.55                     546.7452921395623        608.5672900970566        493.71833250072405       617.4894670044538        554.6331924370502        586.596023292739
0.6000000000000001       558.6444093802181        618.485350437771         507.14909609313554       626.3639795874694        565.1992590112696        596.6728860196531
0.65                     569.664822516288         627.5630352186803        519.7350047744059        634.4482995533458        575.093543265554         605.9666990019834
0.7000000000000001       579.9504730842735        635.9544005776585        531.5862584402906        641.904475033248         584.4046258063102        614.6140873043811
0.75                     589.5115695950137        643.6698627696329        542.7114856582291        648.7428899204399        593.1394588808448        622.6244728056888
0.8                      598.4862530216124        650.8528959326859        553.2234311839147        655.1095332100589        601.3888895568197        630.1266802455916
0.8500000000000001       606.8716094059744        657.499200171399         563.1219942021562        660.9983882943051        609.1527078613587        637.1172656212699
0.9                      614.7541926600768        663.6964730631382        572.4818124986176        666.495811734006         616.4907999840304        643.675676990296
0.9500000000000001       622.1653575256183        669.4750009700028        581.3329306969148        671.6294344272712        623.427082599146         649.8297860655989
1                        629.1355328468507        674.864909591331         589.7030184425836        676.4278786593997        629.9836663536012        655.6070912658863
1                        629.1355328468507        674.864909591331         589.7030184425836        676.4278786593997        629.9836663536012        655.6070912658863
1.1                      642.0594468411158        684.7717903257105        605.3010689484216        685.282478395171         642.1961461836169        666.301777867589
1.2                      653.6024564698522        693.489195834924         619.3536307013165        693.1225836718075        653.1902054603393        675.8266250493792
1.3                      663.9931349844148        701.2324743827654        632.0931509865626        700.1359705057167        663.1523247996772        684.3814706107601
1.4                      673.2998976657647        708.0646028349712        643.5919588439909        706.3760179655609        672.1392176805997        692.0252801802285
1.5                      681.701950388324         714.1526109708797        654.0356439568128        711.9865171311627        680.2981321455727        698.9136949366136
1.6                      689.3163282353289        719.6021214269214        663.5517164956393        717.0550172394704        687.7297682419215        705.1465845454746
1.7000000000000002       696.1838257630951        724.4502728793808        672.1840017450984        721.6126691971455        694.4687742366245        710.7589362393429
1.8                      702.4688241511465        728.8434010908994        680.1143847810949        725.7798510263009        700.6584355975376        715.8902675565176
1.9                      708.176020040624         732.7837839530586        687.3504576127204        729.5579280167783        706.3044573561002        720.5439327313084
2                        713.4873973068397        736.4282669830079        694.0998608601632        733.0748407154597        711.5696702417747        724.8727457637061
2.1                      718.3394992096521        739.7221590428784        700.2901914226381        736.2859769828607        716.3972961072723        728.8234212829011
2.2                      722.7323257491096        742.66546013267          705.9214493001449        739.1913368189815        720.7873349525929        732.3959592889048
2.3                      726.8282195631696        745.3937786756265        711.1831316081278        741.9017933172861        724.8893411390768        735.7257108787003
2.4000000000000004       730.5710640281746        747.8602392055479        716.0097352943601        744.3790212187614        728.6516185386927        738.7658895354932
2.5                      733.9413950871113        750.0485829617472        720.3785406178621        746.6097274030383        732.0562363436597        741.5002673507105
2.6                      737.0182766766806        752.023635168671         724.3827964056323        748.6472990267348        735.1762751211993        743.9944987360675
2.7                      739.9101602608605        753.8743161453943        728.1504114388724        750.5649668891504        738.1119789878726        746.3386414011972
2.8                      742.5307097673399        755.5298381789643        731.579560058587         752.3044333947063        740.7835455787962        748.4610021789515
2.9000000000000004       744.8799251961426        756.99020126938          734.6702422647759        753.8656985434029        743.19097489397          750.361581069332
3                        747.1121534349908        758.3776942340755        737.6077099048698        755.3511744809784        745.4791742239792        752.1677774174071
3.1                      749.1544550355277        759.6345272529081        740.3044188258652        756.7124644724996        747.5796649749833        753.8193863296115
3.2                      750.9996998191272        760.7550510955527        742.7518111696           757.9448375064848        749.4857530380892        755.3105224906835
3.3000000000000003       752.6982801642315        761.7776347023587        745.0114323208678        759.081235149831         751.2454911111521        756.6825430378636
3.4000000000000004       754.2930153243207        762.7348808086732        747.1355784305123        760.1496484071815        752.8997103814971        757.9705898277494
3.5                      755.743620937317         763.5961167546251        749.0750492694629        761.1237433358248        754.4099968600025        759.1416013946982
3.6                      757.0515532052665        764.362406853284         750.831650634407         762.0044637146856        755.77775905686          760.196767474495
3.7                      758.2990645414218        765.0938679804806        752.5073815126274        762.8451181444576        757.0825555481529        761.2032893462456
3.8000000000000003       759.440255540232         765.7569530492212        754.0453232959571        763.6159587674842        758.2799901733013        762.1236666055332
3.9000000000000004       760.4751262017488        766.351662059506         755.445475984396         764.3169855837651        759.3700629323048        762.9578992523484
4                        761.4496772214806        766.9097734603524        756.76595222577          764.9779453750115        760.3980494422327        763.7433970062285
4.1                      762.3856606073487        767.4463140913928        758.034231317102         765.6129042813958        761.3853588485273        764.4978495239224
4.2                      763.2560700066015        767.9426272780883        759.2161961510253        766.2043983913014        762.3054104816367        765.1992940922373
4.300000000000001        764.0609054191843        768.3987130204389        760.31184672754          766.7524277047281        763.1582043415613        765.8477307111863
4.4                      764.8001668451475        768.8145713184445        761.3211830466461        767.2569922216762        763.9437404283005        766.4431593807576
4.5                      765.4738542844544        769.1902021721052        762.2442051083436        767.7180919421454        764.6620187418547        766.9855801009609
4.6                      766.0819677371019        769.5256055814208        763.0809129126325        768.1357268661357        765.3130392822239        767.4749928717894
4.7                      766.6673677050044        769.8487341119616        763.8863430984767        768.537843430945         765.9398168663217        767.9461532871213
4.800000000000001        767.2258416212337        770.1568404311557        764.6550863609417        768.9216949063224        766.538123760301         768.3956453751865
4.9                      767.7364583569713        770.4362737714057        765.3602652970945        769.2736335174403        767.0869534748839        768.806496077318
5                        768.1992179122624        770.6870341327115        766.0018799069352        769.5936592642996        767.5863060100703        769.1787053935395
5                        768.1992179122624        770.6870341327115        766.0018799069352        769.5936592642996        767.5863060100703        769.1787053935395
6                        771.0781452133634        772.1818416489463        770.0652903091383        771.6163715892969        770.7487935255156        771.4909129275
7                        772.3214544442957        772.7866854788977        771.8739342449302        772.5156200208378        772.1566003168912        772.4875724903688
8                        772.8181617417285        773.0116641546597        772.6230530932601        772.8880100000224        772.7397506012682        772.8850065032974
9                        773.063580699368         773.1194464605697        773.0003900458822        773.075581867775         773.0334112854794        773.0812269364039
10                       773.1677162979622        773.1634450422009        773.164772701506         773.1572882511324        773.1612815670961        773.1644093600012
11                       773.1869216602897        773.1693283448427        773.2000519670515        773.1748562842079        773.1887839912471        773.1796550180605
12                       773.1872039833252        773.1678157012595        773.2041590986414        773.1769064587177        773.1920484657572        773.1798092986911
13                       773.1755637694788        773.1616857620683        773.1885099451616        773.169132047821         773.1799255252148        773.170458141371
14                       773.1646513219068        773.1564598431142        773.1726500977387        773.161253150998         773.1676094716711        773.1617147233908
15                       773.1576696116681        773.1532619903476        773.1621527075008        773.1560388978934        773.1594457917705        773.1561271600964
16                       773.1534237217599        773.151367076479         773.1556450685157        773.1528057917583        773.1543854470574        773.152731277134
17                       773.150953247843         773.1503113743642        773.1517441070831        773.1508673158093        773.1513517129935        773.1507574241136
18                       773.1493625532988        773.1496264010235        773.1492432161631        773.1496245726639        773.1494075438505        773.1494862724757
19                       773.1489413542929        773.1494648473106        773.1485300514696        773.1492699736805        773.1488539130179        773.1491505574926
20                       773.148652277458         773.1493575147617        773.1480324012708        773.1490225924821        773.1484679409523        773.1489203043744
21                       773.1486822423186        773.1493889460847        773.148033555149         773.1490231405916        773.14846997268          773.1489450624658
22                       773.1491499261595        773.149612860957         773.1487131679288        773.1493608411536        773.1489997122363        773.1493197843756
23                       773.14930667159          773.1496915316256        773.1489322499049        773.1494696932493        773.1491705569942        773.1494455327658
24                       773.1495151105936        773.1497885454353        773.149242500781         773.1496238543514        773.1494119563197        773.1496124187478
25                       773.1497352662979        773.1498873173214        773.1495794018867        773.1497912516359        773.1496737975374        773.1497885228174
26                       773.149852180915         773.1499401551233        773.1497574227527        773.1498796562009        773.1498119761882        773.1498820569806
27                       773.149931214546         773.149974174568         773.1498820480851        773.1499415054639        773.1499084239173        773.1499452079886
28                       773.1499825048102        773.1499953993558        773.1499650758385        773.149982693403         773.1499725797308        773.1499861521352
29                       773.1500141247976        773.1500086264718        773.1500159013365        773.1500079136995        773.1500119603998        773.1500114006363
30                       773.1500196394782        773.1500100322257        773.1500270355405        773.150013425007         773.1500205742849        773.1500157633832
31                       773.1500272899392        773.150012672592         773.1500407414815        773.15002021795          773.1500312320377        773.1500218469638
32                       773.1500366657815        773.1500163578193        773.1500564049219        773.1500279874574        773.1500434567981        773.1500293227982
33                       773.1500411854826        773.1500180452424        773.1500641765595        773.1500318417122        773.1500496021193        773.1500329224908
34                       773.1500408490725        773.1500177348618        773.1500640563942        773.1500317807148        773.1500496680017        773.1500326460325
35                       773.1500356564209        773.1500154266772        773.1500560444264        773.1500278044651        773.150043654445         773.150028493435
36                       773.1500279893709        773.1500121082674        773.1500439923454        773.1500218240915        773.1500345091946        773.1500223661635
37                       773.150026364134         773.1500113108797        773.1500416724946        773.1500206731449        773.1500327723926        773.1500210632381
38                       773.1500236923551        773.1500100953166        773.1500376216057        773.1500186637899        773.1500296710602        773.1500189255554
39                       773.1500199739904        773.150008461578         773.150031839679         773.1500157960259        773.1500252051973        773.1500159531225
40                       773.1500152090297        773.1500064096641        773.1500243267145        773.1500120698532        773.1500193748041        773.1500121459458
41                       773.1500093974569        773.1500039395748        773.150015082712         773.150007485272         773.1500121798803        773.1500075040234
42                       773.1500056628048        773.1500023436894        773.1500091633588        773.15000454897          773.1500075489922        773.1500045205397
43                       773.1500035917728        773.1500014510416        773.1500058998475        773.1500029293422        773.1500049624372        773.1500028657059
44                       773.1500019515589        773.1500007515072        773.1500032966118        773.150001636956         773.1500028695428        773.1500015553854
45                       773.1500007421272        773.1500002450857        773.1500013536514        773.1500006718113        773.1500012703094        773.1500005895855
46                       773.1499999634859        773.1499999317778        773.1500000709666        773.1500000339078        773.1500001647362        773.1499999683087
47                       773.149999537716         773.1499997745439        773.1499993344391        773.1499996668643        773.149999475799         773.14999962916
48                       773.1499989656836        773.1499995361319        773.1499984130927        773.1499992095307        773.1499987101204        773.1499991724974
49                       773.1499986325545        773.1499993995739        773.1499978708514        773.1499989405222        773.1499982483248        773.1499989066268
50                       773.1499985382396        773.1499993648703        773.1499977077158        773.1499988598391        773.1499980904122        773.1499988315522
51                       773.149998682715         773.149999432021         773.1499979236856        773.1499989674812        773.1499982363827        773.1499989472752
52                       773.1499990660247        773.1499996010258        773.1499985187608        773.1499992634483        773.1499986862362        773.1499992537975
53                       773.14999929423          773.149999702231         773.1499988716195        773.1499994390443        773.1499989583903        773.1499994363152
54                       773.1499993348251        773.1499997216439        773.1499989310172        773.149999468809         773.1499990131254        773.1499994688625
55                       773.1499994024438        773.1499997517208        773.1499990355544        773.1499995209718        773.1499991128888        773.1499995230066
56                       773.1499994972554        773.1499997924614        773.1499991852311        773.1499995955328        773.1499992576804        773.1499995987264
57                       773.1499996190826        773.1499998438657        773.1499993800473        773.1499996924922        773.1499994475004        773.1499996960454
58                       773.1499997680121        773.149999905934         773.1499996200031        773.1499998118496        773.1499996823486        773.1499998149511
59                       773.1499998694097        773.1499999482988        773.1499997831307        773.14999989297          773.1499998428898        773.1499998959109
60                       773.1499999194306        773.1499999693739        773.1499998630585        773.149999932685         773.1499999228895        773.1499999358263
