% Model:              all_models_oak_case_sol1.mph
% Version:            COMSOL 4.3.2.164
% Date:               Sep 24 2015, 14:19
% Table:              700tempsOak - 
% Time                   Tv (K)                   Tst (K), Point: 71       Tc (K), Point: 74        Tl (K), Point: 75        Tw (K), Point: 76        Tsa (K)
0                        293.6585753473599        297.15938256069904       293.1521234632694        297.4385804374324        297.6550797003721        297.94817093734395
0.05                     434.12332648601347       463.712249925393         405.4386796104988        449.90507294829564       434.82969297221695       453.087775756753
0.1                      514.8447473777934        542.2145762022633        488.52517836041824       523.2786050776919        511.3889903186917        529.8220949465554
0.15000000000000002      570.1467137844884        593.7731914179225        547.3062411215553        575.0387904951117        565.4959629587638        582.1493871132296
0.2                      610.4445681748914        630.4481780814687        591.0234353334371        613.46902254338          605.7176197554056        620.1813142762701
0.25                     641.2812793989268        658.1164885577901        624.8866134496168        643.2058314183797        636.8630134534185        649.2404856724095
0.30000000000000004      665.515108946834         679.6463073449371        651.7219108855677        666.7535661433924        661.5384489585875        672.0537514468515
0.35000000000000003      684.6744333482671        696.5245427128234        673.0876913494814        685.4913395702962        681.1821270205902        690.074438507464
0.4                      700.0609643491001        709.9974161473501        690.3322943342727        700.6091600796525        697.0352156593327        704.5377658468544
0.45                     712.5435654360294        720.8780640775176        704.3747806212459        712.9163132125773        709.9435240819162        716.2660797260393
0.5                      722.7822953619112        729.7724802970928        715.9253088075656        723.0371660070018        720.5603085201396        725.882829953799
0.55                     731.3529549762538        737.2017540303402        725.6112152266323        731.5226498157888        729.4622323733804        733.931054559002
0.6000000000000001       738.4468079312388        743.3363350943372        733.6436953059388        738.5584681946441        736.8441320113495        740.5909075160486
0.65                     744.2486486801655        748.3414186562848        740.2262575935281        744.3235244918056        742.893623915926         746.0364936251439
0.7000000000000001       749.1156155464057        752.5342279366101        745.7543433081754        749.1646760366699        747.974012214665         750.6039979145518
0.75                     753.0696304236592        755.9339482615597        750.2525337318659        753.1034715038155        752.1078847927812        754.3140245714947
0.8                      756.4240815858466        758.8164963267975        754.070463598096         756.4465259829198        755.6165808614994        757.4613105001846
0.8500000000000001       759.1622481644089        761.1664524988666        757.1902078847203        759.1780521227204        758.4836175674823        760.0300536839195
0.9                      761.4626029157786        763.1397685742719        759.8121103951903        761.4736226672213        760.893115549613         762.1879766805779
0.9500000000000001       763.3752391958255        764.7795146463592        761.9931527808899        763.3831308895449        762.8974455746088        763.9820823859595
1                        764.9559757572516        766.1341319064826        763.7963506588695        764.9617805253862        764.5545220358474        765.4647925670527
1                        764.9559757572516        766.1341319064826        763.7963506588695        764.9617805253862        764.5545220358474        765.4647925670527
1.1                      767.5622246879195        768.3673490326041        766.7696004148748        767.5646713106836        767.286584872339         767.9093888418707
1.2                      769.3751863115627        769.9199929326849        768.8387350799659        769.3759131514536        769.1876104647563        769.6098035642749
1.3                      770.6690759373267        771.0277080106104        770.315884774863         770.6690107058555        770.5449596947345        770.8233329521842
1.4                      771.5066027708855        771.7442853486328        771.2725109327697        771.5064324589861        771.4240914708179        771.6087966272066
1.5                      772.0791855067458        772.2341049391312        771.9265923640579        772.0789957253345        772.0252704778082        772.1457780288465
1.6                      772.4670448377           772.5658434754932        772.3697236540581        772.4669039028824        772.4326010504808        772.5095157842015
1.7000000000000002       772.7025407740789        772.7672415198074        772.6388095087146        772.7024666917089        772.6799803847692        772.730364024008
1.8                      772.8782623674987        772.9175405819597        772.8395727226733        772.8782220535722        772.864539221473         772.8951578191372
1.9                      772.9817278233464        773.0060372365441        772.9577837017862        772.9817117981077        772.9732093279088        772.992188895702
2                        773.0766366478712        773.087219589885         773.0662115670957        773.0766259760546        773.072854480554         773.0811955364837
2.1                      773.1407771862774        773.1420879498688        773.139482140851         773.1407562297301        773.1401596616496        773.1413473427633
2.2                      773.174149438605         773.1706423164957        773.1775954230525        773.1741025591338        773.1751248711955        773.17264431454
2.3                      773.2027957507655        773.1951507370217        773.2103164704125        773.2027444522081        773.205185272052         773.1995096276495
2.4000000000000004       773.2177141221241        773.2079158643979        773.2273564610679        773.2176670695625        773.2208574116532        773.2135009764739
2.5                      773.2157822078058        773.2062678729404        773.2251467160066        773.215743613147         773.2188519534176        773.2116901463668
2.6                      773.2068439195996        773.1986260263569        773.2149333543301        773.2068141730382        773.2094985131728        773.2033085547672
2.7                      773.2044020842199        773.1965389713605        773.2121426010522        773.2043763338063        773.2069661546304        773.2010188741046
2.8                      773.1977073675287        773.1908130579843        773.2044939425666        773.1976849344796        773.1999751655122        773.1947406004963
2.9000000000000004       773.1867597695212        773.1814482862281        773.1919873788743        773.1867399750577        773.1885255458187        773.1844737339519
3                        773.1804776496592        773.1760745817734        773.1848110117146        773.1804610022948        773.1819558483878        773.1785823456302
3.1                      773.1746464738835        773.1710862835133        773.1781502670368        773.1746329210292        773.1758529690603        773.1731138405372
3.2                      773.168854251372         773.1661309208912        773.1715344972828        773.1688436856215        773.1697855058727        773.1676818336623
3.3000000000000003       773.1638055057214        773.1618114997785        773.1657680511919        773.1637976178898        773.1644932747058        773.162947056724
3.4000000000000004       773.1600988824621        773.1586404044284        773.1615343974458        773.1600931919551        773.1606049095839        773.1594709445833
3.5                      773.1571711757581        773.1561355836343        773.1581905285736        773.1571673632457        773.1575289914923        773.1567252991989
3.6                      773.1550136015           773.1542895265878        773.1557264063399        773.1550113456591        773.1552564998403        773.154701883049
3.7                      773.1531299959021        773.1526779912795        773.1535750290241        773.1531288631924        773.1532779137248        773.1529354054953
3.8000000000000003       773.151797233826         773.1515377179489        773.1520528012261        773.1517968532947        773.151877561661         773.1516855131937
3.9000000000000004       773.1510153152308        773.1508687065964        773.1511597229459        773.1510153159661        773.1510554436493        773.15095220613
4                        773.150353852022         773.1503027584635        773.1504042233508        773.1503541745501        773.1503604271093        773.1503318666023
4.1                      773.1496093297865        773.1496657661324        773.149553856985         773.1496100618857        773.1495791883218        773.1496336388783
4.2                      773.1490344232509        773.1491738938472        773.1488972180789        773.1490354698492        773.1489765807956        773.1490944811753
4.300000000000001        773.1486291323866        773.1488271416076        773.1484343066325        773.1486303984406        773.1485526045306        773.1487143934866
4.4                      773.1483934571796        773.1486255094136        773.1481651226455        773.1483948476597        773.1483072595266        773.1484933758215
4.5                      773.1483273976601        773.1485689972656        773.1480896661184        773.1483288175067        773.1482405457841        773.1484314281759
4.6                      773.1484309538531        773.148657605163         773.1482079370508        773.1484323079814        773.1483524633026        773.1485285505471
4.7                      773.1484448265597        773.1486694780014        773.1482237761012        773.148446149088         773.148369187405         773.1485415625518
4.800000000000001        773.1483945011756        773.1486264209256        773.1481662914459        773.1483958134859        773.1483176310932        773.1484943653085
4.9                      773.1484066076595        773.1486367779258        773.1481801139003        773.1484078680677        773.1483315179435        773.1485057171096
5                        773.1484811459803        773.1487005490019        773.1482652434637        773.1484823128338        773.1484108479559        773.1485756179426
5                        773.1484811459803        773.1487005490019        773.1482652434637        773.1484823128338        773.1484108479559        773.1485756179426
6                        773.1497709063837        773.149804004035         773.1497383538049        773.1497711330954        773.1497625366345        773.1497851609378
7                        773.1500356431709        773.1500304945349        773.1500407102127        773.1500356507432        773.1500347567073        773.1500334264829
8                        773.1500164344162        773.1500140601117        773.1500187701508        773.1500164131869        773.150017847933         773.1500154119972
9                        773.150002769255         773.150002369028         773.1500031638346        773.1500027566062        773.1500046840619        773.15000259709
10                       773.1500005846608        773.1500005000795        773.1500006681152        773.1500005803862        773.1500014554618        773.1500005481998
11                       773.1499998563407        773.149999877112         773.1499998355209        773.1499998602761        773.1499991651576        773.149999865183
12                       773.1499997054573        773.1499997480726        773.1499996629792        773.1499997087599        773.1499988408685        773.1499997236639
13                       773.149999888548         773.1499999046853        773.1499998723361        773.149999889267         773.1499994810011        773.1499998954012
14                       773.1499999921697        773.1499999932906        773.1499999912419        773.1499999912552        773.1500002420252        773.1499999927046
15                       773.1500000073235        773.1500000062593        773.1500000086832        773.1500000069406        773.1500003393478        773.1500000069543
16                       773.1500000084806        773.1500000072471        773.1500000098266        773.1500000085239        773.1500001441515        773.1500000079842
17                       773.1500000027277        773.1500000023483        773.15000000302          773.1500000031308        773.1499998607914        773.1500000025361
18                       773.1500000014422        773.150000001251         773.1500000014084        773.1500000018831        773.1499997120713        773.1500000012974
19                       773.1500000007686        773.1500000006939        773.1500000005693        773.1500000010404        773.1499996248926        773.1500000006557
20                       773.1500000002532        773.1500000002505        773.149999999989         773.1500000003932        773.149999644068         773.1500000001695
21                       773.1499999999555        773.1499999999978        773.1499999997602        773.1499999999787        773.1499997615228        773.1499999999231
22                       773.1499999999512        773.1499999999847        773.1499999999313        773.1499999998193        773.1499999612694        773.1499999999633
23                       773.1499999998659        773.14999999991          773.1499999999179        773.1499999997226        773.1500000496053        773.1499999999096
24                       773.1499999998833        773.1499999999196        773.1500000000028        773.1499999997818        773.1500001203553        773.1499999999393
25                       773.149999999956         773.149999999978         773.150000000127         773.14999999993          773.150000162298         773.1500000000166
26                       773.1499999999634        773.1499999999837        773.1500000001188        773.1499999999754        773.1500001431655        773.1500000000176
27                       773.1499999999726        773.1499999999946        773.1500000000757        773.150000000027         773.1500000813037        773.1500000000129
28                       773.1499999999786        773.1500000000038        773.1500000000252        773.1500000000598        773.1500000157272        773.1500000000057
29                       773.1499999999795        773.1500000000057        773.1499999999899        773.1500000000535        773.1499999775058        773.1499999999959
30                       773.1499999999769        773.1500000000045        773.1499999999517        773.1500000000242        773.1499999418734        773.1499999999847
31                       773.1499999999742        773.150000000004         773.1499999999277        773.1500000000033        773.1499999191836        773.1499999999763
32                       773.1499999999729        773.150000000004         773.1499999999171        773.1499999999907        773.149999909286         773.1499999999744
33                       773.1499999999725        773.1500000000035        773.1499999999165        773.1499999999785        773.1499999097675        773.1499999999742
34                       773.149999999972         773.150000000003         773.1499999999259        773.1499999999673        773.1499999206281        773.1499999999754
35                       773.1499999999724        773.1500000000019        773.1499999999448        773.1499999999567        773.1499999418684        773.1499999999802
36                       773.1499999999728        773.150000000001         773.1499999999687        773.1499999999486        773.1499999680764        773.1499999999871
37                       773.1499999999724        773.1500000000005        773.1499999999794        773.1499999999496        773.149999979903         773.1499999999893
38                       773.1499999999725        773.15                   773.1499999999919        773.1499999999542        773.1499999934534        773.1499999999927
39                       773.1499999999721        773.1499999999996        773.1500000000062        773.1499999999622        773.1500000087276        773.1499999999966
40                       773.149999999972         773.1499999999991        773.1500000000224        773.1499999999743        773.1500000257256        773.1500000000008
41                       773.1499999999736        773.1499999999986        773.1500000000403        773.1499999999896        773.1500000444474        773.1500000000054
42                       773.1499999999738        773.1499999999983        773.1500000000493        773.1499999999994        773.1500000539711        773.1500000000085
43                       773.149999999974         773.1499999999983        773.1500000000511        773.1500000000045        773.1500000557413        773.1500000000093
44                       773.1499999999738        773.1499999999982        773.1500000000499        773.150000000009         773.1500000540697        773.1500000000086
45                       773.1499999999737        773.1499999999983        773.1500000000453        773.1500000000126        773.1500000489555        773.1500000000074
46                       773.1499999999731        773.1499999999986        773.1500000000377        773.1500000000153        773.150000040399         773.1500000000048
47                       773.1499999999729        773.149999999999         773.1500000000278        773.1500000000174        773.1500000294637        773.1500000000028
48                       773.1499999999725        773.1499999999991        773.150000000022         773.1500000000168        773.1500000229593        773.1500000000011
49                       773.1499999999725        773.1499999999994        773.1500000000152        773.1500000000152        773.1500000156319        773.1499999999994
50                       773.1499999999724        773.1499999999996        773.1500000000076        773.1500000000124        773.1500000074822        773.1499999999974
51                       773.1499999999729        773.1499999999999        773.1499999999992        773.150000000008         773.1499999985094        773.1499999999949
52                       773.1499999999736        773.1500000000003        773.14999999999          773.1500000000026        773.149999988714         773.1499999999933
53                       773.1499999999734        773.1500000000005        773.149999999984         773.1499999999988        773.149999982308         773.1499999999907
54                       773.1499999999729        773.1500000000004        773.1499999999814        773.149999999997         773.1499999796391        773.14999999999
55                       773.1499999999734        773.1500000000005        773.1499999999802        773.1499999999954        773.1499999784116        773.1499999999897
56                       773.1499999999734        773.1500000000005        773.1499999999803        773.1499999999943        773.1499999786256        773.1499999999897
57                       773.1499999999731        773.1500000000004        773.1499999999817        773.1499999999934        773.1499999802811        773.1499999999902
58                       773.1499999999731        773.1500000000003        773.1499999999845        773.1499999999928        773.1499999833777        773.1499999999908
59                       773.1499999999733        773.1500000000001        773.149999999987         773.1499999999928        773.149999986178         773.1499999999918
60                       773.1499999999734        773.1500000000001        773.1499999999892        773.1499999999934        773.1499999885915        773.1499999999928
